VARIABLES = "X", "Y" 
ZONE t="t:0", N=22, E=27, F=FEPOINT, ET=TRIANGLE
-5.000000e-01 -5.000000e-01 
-2.500000e-01 -4.166667e-01 
0.000000e+00 -5.000000e-01 
2.500000e-01 -4.166667e-01 
5.000000e-01 -5.000000e-01 
4.166667e-01 -2.500000e-01 
5.000000e-01 0.000000e+00 
4.166667e-01 2.500000e-01 
5.000000e-01 5.000000e-01 
2.500000e-01 4.166667e-01 
0.000000e+00 5.000000e-01 
-2.500000e-01 4.166667e-01 
-5.000000e-01 5.000000e-01 
-5.000000e-01 1.666667e-01 
-5.000000e-01 -1.666667e-01 
-2.500000e-01 0.000000e+00 
0.000000e+00 -2.500000e-01 
2.000000e-01 -1.666667e-01 
3.333333e-01 0.000000e+00 
2.000000e-01 1.666667e-01 
0.000000e+00 2.500000e-01 
8.333333e-02 0.000000e+00 
22 19 20 
22 20 21 
22 21 16 
22 16 17 
22 17 18 
22 18 19 
19 7 8 
19 8 20 
20 8 10 
20 10 21 
21 10 11 
21 11 12 
21 12 16 
12 13 14 
12 14 16 
14 15 16 
15 2 16 
15 1 2 
2 17 16 
2 3 17 
3 4 17 
4 18 17 
4 6 18 
6 19 18 
6 7 19 
8 9 10 
4 5 6 
