VARIABLES = "X", "Y" 
ZONE t="t:0", N=21, E=26, F=FEPOINT, ET=TRIANGLE
-5.000000e-01 -5.000000e-01 
-1.666667e-01 -5.000000e-01 
1.666667e-01 -5.000000e-01 
5.000000e-01 -5.000000e-01 
4.166667e-01 -2.500000e-01 
5.000000e-01 0.000000e+00 
4.166667e-01 2.500000e-01 
5.000000e-01 5.000000e-01 
2.500000e-01 4.166667e-01 
0.000000e+00 5.000000e-01 
-2.500000e-01 4.166667e-01 
-5.000000e-01 5.000000e-01 
-5.000000e-01 1.666667e-01 
-5.000000e-01 -1.666667e-01 
3.333333e-01 0.000000e+00 
2.000000e-01 2.000000e-01 
0.000000e+00 3.333333e-01 
-2.500000e-01 8.333333e-02 
-2.500000e-01 -2.500000e-01 
8.333333e-02 -2.500000e-01 
0.000000e+00 0.000000e+00 
21 15 16 
21 16 17 
21 17 18 
21 18 19 
21 19 20 
21 20 15 
15 6 7 
15 7 16 
7 9 16 
16 9 17 
9 10 17 
10 11 17 
11 18 17 
11 12 13 
11 13 18 
13 14 18 
18 14 19 
14 1 19 
19 1 2 
19 2 20 
20 2 3 
20 3 5 
3 4 5 
20 5 15 
5 6 15 
7 8 9 
