VARIABLES = "X", "Y" 
ZONE t="t:0", N=18, E=20, F=FEPOINT, ET=TRIANGLE
-5.000000e-01 -5.000000e-01 
5.000000e-01 -5.000000e-01 
5.000000e-01 5.000000e-01 
-5.000000e-01 5.000000e-01 
5.000000e-01 1.666667e-01 
2.500000e-01 4.166667e-01 
0.000000e+00 5.000000e-01 
-2.500000e-01 4.166667e-01 
-5.000000e-01 1.666667e-01 
-5.000000e-01 -1.666667e-01 
-2.500000e-01 -4.166667e-01 
0.000000e+00 -5.000000e-01 
2.500000e-01 -4.166667e-01 
5.000000e-01 -1.666667e-01 
2.500000e-01 0.000000e+00 
0.000000e+00 1.666667e-01 
-2.500000e-01 0.000000e+00 
0.000000e+00 -1.666667e-01 
18 15 16 
18 16 17 
15 14 5 
15 5 6 
15 6 16 
16 6 7 
16 7 8 
16 8 17 
17 8 9 
17 9 10 
17 10 11 
18 17 11 
12 18 11 
13 18 12 
18 13 15 
14 15 13 
1 11 10 
13 2 14 
5 3 6 
8 4 9 
