VARIABLES = "X", "Y" 
ZONE t="t:0", N=18, E=22, F=FEPOINT, ET=TRIANGLE
-5.000000e-01 -5.000000e-01 
0.000000e+00 -6.666667e-01 
5.000000e-01 -5.000000e-01 
5.000000e-01 -1.666667e-01 
5.000000e-01 1.666667e-01 
5.000000e-01 5.000000e-01 
2.500000e-01 4.166667e-01 
0.000000e+00 5.000000e-01 
-2.500000e-01 4.166667e-01 
-5.000000e-01 5.000000e-01 
-5.000000e-01 1.666667e-01 
-5.000000e-01 -1.666667e-01 
-1.250000e-01 -2.700000e-01 
1.250000e-01 -2.700000e-01 
2.500000e-01 0.000000e+00 
0.000000e+00 1.666667e-01 
-2.500000e-01 0.000000e+00 
0.000000e+00 -5.349365e-02 
18 15 16 
18 16 17 
18 17 13 
18 13 14 
18 14 15 
4 5 15 
15 5 7 
5 6 7 
15 7 16 
16 7 8 
16 8 9 
16 9 17 
17 9 11 
9 10 11 
11 12 17 
12 13 17 
12 1 13 
1 2 13 
13 2 14 
14 2 3 
14 3 4 
14 4 15 
