VARIABLES = "X", "Y" 
ZONE t="t:0", N=20, E=26, F=FEPOINT, ET=TRIANGLE
-5.000000e-01 -5.000000e-01 
-1.666667e-01 -5.000000e-01 
1.666667e-01 -5.000000e-01 
5.000000e-01 -5.000000e-01 
5.000000e-01 -1.666667e-01 
5.000000e-01 1.666667e-01 
5.000000e-01 5.000000e-01 
1.666667e-01 5.000000e-01 
-1.666667e-01 5.000000e-01 
-5.000000e-01 5.000000e-01 
-5.000000e-01 1.666667e-01 
-5.000000e-01 -1.666667e-01 
-3.000000e-01 -2.500000e-01 
0.000000e+00 -1.666667e-01 
3.000000e-01 -2.500000e-01 
2.500000e-01 0.000000e+00 
3.000000e-01 2.500000e-01 
0.000000e+00 1.666667e-01 
-3.000000e-01 2.500000e-01 
-2.500000e-01 0.000000e+00 
14 16 18 
14 18 20 
14 15 16 
16 17 18 
18 19 20 
20 13 14 
16 5 6 
16 6 17 
17 6 7 
17 7 8 
18 17 8 
18 8 9 
18 9 19 
19 9 10 
19 10 11 
20 19 11 
20 11 12 
20 12 13 
13 12 1 
13 1 2 
13 2 14 
14 2 3 
14 3 15 
15 3 4 
15 4 5 
15 5 16 
