VARIABLES = "X", "Y" 
ZONE t="t:0", N=19, E=25, F=FEPOINT, ET=TRIANGLE
-5.000000e-01 -5.000000e-01 
-1.666667e-01 -5.000000e-01 
1.666667e-01 -5.000000e-01 
5.000000e-01 -5.000000e-01 
5.000000e-01 -1.666667e-01 
5.000000e-01 1.666667e-01 
5.000000e-01 5.000000e-01 
1.666667e-01 5.000000e-01 
-1.666667e-01 5.000000e-01 
-5.000000e-01 5.000000e-01 
-6.666667e-01 0.000000e+00 
1.666667e-01 0.000000e+00 
2.500000e-01 2.916667e-01 
0.000000e+00 2.500000e-01 
-8.333333e-02 0.000000e+00 
0.000000e+00 -2.500000e-01 
2.500000e-01 -2.916667e-01 
-2.998397e-01 1.250000e-01 
-2.998397e-01 -1.250000e-01 
14 15 12 
15 16 12 
14 12 13 
18 15 14 
18 19 15 
19 16 15 
16 17 12 
12 5 6 
12 6 13 
6 7 13 
13 7 8 
14 13 8 
14 8 9 
18 14 9 
18 9 10 
18 10 11 
19 18 11 
1 19 11 
1 2 19 
2 16 19 
2 3 16 
16 3 17 
3 4 17 
17 4 5 
17 5 12 
